    2    2    1    1
  0.2002393E+02  0.3840297E-09  0.3840297E-09  0.3840297E-09  0.5000000E-15
  1.000000000000000E-004
  CAR 
 unknown system                          
      8    150      8
 
  0.5000000E+00  0.5000000E+00  0.5000000E+00  0.6666667E-02
    1       -3.799472   1.000000
    2       -1.138829   1.000000
    3        4.634694   1.000000
    4        4.634694   1.000000
    5        7.378234  -0.000000
    6        9.190697  -0.000000
    7        9.190697  -0.000000
    8       13.563826   0.000000
 
  0.4897959E+00  0.4897959E+00  0.4897959E+00  0.6666667E-02
    1       -3.805476   1.000000
    2       -1.130255   1.000000
    3        4.635444   1.000000
    4        4.635444   1.000000
    5        7.379095  -0.000000
    6        9.191569  -0.000000
    7        9.191569  -0.000000
    8       13.565171   0.000000
 
  0.4795918E+00  0.4795918E+00  0.4795918E+00  0.6666667E-02
    1       -3.823245   1.000000
    2       -1.104768   1.000000
    3        4.637694   1.000000
    4        4.637694   1.000000
    5        7.381678  -0.000000
    6        9.194173  -0.000000
    7        9.194173  -0.000000
    8       13.569189   0.000000
 
  0.4693878E+00  0.4693878E+00  0.4693878E+00  0.6666667E-02
    1       -3.852099   1.000000
    2       -1.063046   1.000000
    3        4.641443   1.000000
    4        4.641443   1.000000
    5        7.385980  -0.000000
    6        9.198481  -0.000000
    7        9.198481  -0.000000
    8       13.575825   0.000000
 
  0.4591837E+00  0.4591837E+00  0.4591837E+00  0.6666667E-02
    1       -3.891500   1.000000
    2       -1.006167   1.000000
    3        4.646586   1.000000
    4        4.646586   1.000000
    5        7.391781  -0.000000
    6        9.204141  -0.000000
    7        9.204141  -0.000000
    8       13.584618   0.000000
 
  0.4489796E+00  0.4489796E+00  0.4489796E+00  0.6666667E-02
    1       -3.939376   1.000000
    2       -0.935277   1.000000
    3        4.652777   1.000000
    4        4.652777   1.000000
    5        7.399406  -0.000000
    6        9.211038  -0.000000
    7        9.211038  -0.000000
    8       13.596149   0.000000
 
  0.4387755E+00  0.4387755E+00  0.4387755E+00  0.6666667E-02
    1       -3.994657   1.000000
    2       -0.851666   1.000000
    3        4.661037   1.000000
    4        4.661037   1.000000
    5        7.410348  -0.000000
    6        9.220011  -0.000000
    7        9.220011  -0.000000
    8       13.610110   0.000000
 
  0.4285714E+00  0.4285714E+00  0.4285714E+00  0.6666667E-02
    1       -4.056150   1.000000
    2       -0.756764   1.000000
    3        4.670776   1.000000
    4        4.670776   1.000000
    5        7.421437  -0.000000
    6        9.230337  -0.000000
    7        9.230337  -0.000000
    8       13.625764   0.000000
 
  0.4183673E+00  0.4183673E+00  0.4183673E+00  0.6666667E-02
    1       -4.122635   1.000000
    2       -0.651766   1.000000
    3        4.682006   1.000000
    4        4.682006   1.000000
    5        7.434218  -0.000000
    6        9.241879  -0.000000
    7        9.241879  -0.000000
    8       13.643015   0.000000
 
  0.4081633E+00  0.4081633E+00  0.4081633E+00  0.6666667E-02
    1       -4.193013   1.000000
    2       -0.537788   1.000000
    3        4.694725   1.000000
    4        4.694725   1.000000
    5        7.448681  -0.000000
    6        9.254467  -0.000000
    7        9.254467  -0.000000
    8       13.661391   0.000000
 
  0.3979592E+00  0.3979592E+00  0.3979592E+00  0.6666667E-02
    1       -4.266321   1.000000
    2       -0.415819   1.000000
    3        4.708928   1.000000
    4        4.708928   1.000000
    5        7.464813  -0.000000
    6        9.267902  -0.000000
    7        9.267902  -0.000000
    8       13.680357   0.000000
 
  0.3877551E+00  0.3877551E+00  0.3877551E+00  0.6666667E-02
    1       -4.341736   1.000000
    2       -0.286709   1.000000
    3        4.724610   1.000000
    4        4.724610   1.000000
    5        7.482601  -0.000000
    6        9.281954  -0.000000
    7        9.281954  -0.000000
    8       13.699224   0.000000
 
  0.3775510E+00  0.3775510E+00  0.3775510E+00  0.6666667E-02
    1       -4.418540   1.000000
    2       -0.151188   1.000000
    3        4.741764   1.000000
    4        4.741764   1.000000
    5        7.502028  -0.000000
    6        9.296364  -0.000000
    7        9.296364  -0.000000
    8       13.718082   0.000000
 
  0.3673469E+00  0.3673469E+00  0.3673469E+00  0.6666667E-02
    1       -4.496129   1.000000
    2       -0.009885   1.000000
    3        4.760382   1.000000
    4        4.760382   1.000000
    5        7.523073  -0.000000
    6        9.310837  -0.000000
    7        9.310837  -0.000000
    8       13.736242   0.000000
 
  0.3571429E+00  0.3571429E+00  0.3571429E+00  0.6666667E-02
    1       -4.573996   1.000000
    2        0.136664   1.000000
    3        4.780455   1.000000
    4        4.780455   1.000000
    5        7.545714  -0.000000
    6        9.325045  -0.000000
    7        9.325045  -0.000000
    8       13.768446   0.000000
 
  0.3469388E+00  0.3469388E+00  0.3469388E+00  0.6666667E-02
    1       -4.651713   1.000000
    2        0.287998   1.000000
    3        4.801970   1.000000
    4        4.801970   1.000000
    5        7.569926  -0.000000
    6        9.338623  -0.000000
    7        9.338623  -0.000000
    8       13.801219   0.000000
 
  0.3367347E+00  0.3367347E+00  0.3367347E+00  0.6666667E-02
    1       -4.728777   1.000000
    2        0.444858   1.000000
    3        4.825054   1.000000
    4        4.825054   1.000000
    5        7.595749  -0.000000
    6        9.351227  -0.000000
    7        9.351227  -0.000000
    8       13.789231   0.000000
 
  0.3265306E+00  0.3265306E+00  0.3265306E+00  0.6666667E-02
    1       -4.805176   1.000000
    2        0.604658   1.000000
    3        4.849413   1.000000
    4        4.849413   1.000000
    5        7.623005  -0.000000
    6        9.362321  -0.000000
    7        9.362321  -0.000000
    8       13.726990   0.000000
 
  0.3163265E+00  0.3163265E+00  0.3163265E+00  0.6666667E-02
    1       -4.880498   1.000000
    2        0.768283   1.000000
    3        4.875144   1.000000
    4        4.875144   1.000000
    5        7.652146  -0.000000
    6        9.371498  -0.000000
    7        9.371498  -0.000000
    8       13.636657   0.000000
 
  0.3061224E+00  0.3061224E+00  0.3061224E+00  0.6666667E-02
    1       -4.954524   1.000000
    2        0.935278   1.000000
    3        4.902265   1.000000
    4        4.902265   1.000000
    5        7.682283  -0.000000
    6        9.378191  -0.000000
    7        9.378191  -0.000000
    8       13.535510   0.000000
 
  0.2959184E+00  0.2959184E+00  0.2959184E+00  0.6666667E-02
    1       -5.027068   1.000000
    2        1.105481   1.000000
    3        4.930727   1.000000
    4        4.930727   1.000000
    5        7.713793  -0.000000
    6        9.381994  -0.000000
    7        9.381994  -0.000000
    8       13.428613   0.000000
 
  0.2857143E+00  0.2857143E+00  0.2857143E+00  0.6666667E-02
    1       -5.097978   1.000000
    2        1.278676   1.000000
    3        4.960498   1.000000
    4        4.960498   1.000000
    5        7.746617  -0.000000
    6        9.382420  -0.000000
    7        9.382420  -0.000000
    8       13.317242   0.000000
 
  0.2755102E+00  0.2755102E+00  0.2755102E+00  0.6666667E-02
    1       -5.167103   1.000000
    2        1.454654   1.000000
    3        4.991540   1.000000
    4        4.991540   1.000000
    5        7.780687  -0.000000
    6        9.379006  -0.000000
    7        9.379006  -0.000000
    8       13.199030   0.000000
 
  0.2653061E+00  0.2653061E+00  0.2653061E+00  0.6666667E-02
    1       -5.234324   1.000000
    2        1.633217   1.000000
    3        5.023809   1.000000
    4        5.023809   1.000000
    5        7.815929  -0.000000
    6        9.371330  -0.000000
    7        9.371330  -0.000000
    8       13.065671   0.000000
 
  0.2551020E+00  0.2551020E+00  0.2551020E+00  0.6666667E-02
    1       -5.299536   1.000000
    2        1.814172   1.000000
    3        5.057254   1.000000
    4        5.057254   1.000000
    5        7.852258  -0.000000
    6        9.359038  -0.000000
    7        9.359038  -0.000000
    8       12.907822   0.000000
 
  0.2448980E+00  0.2448980E+00  0.2448980E+00  0.6666667E-02
    1       -5.362648   1.000000
    2        1.997332   1.000000
    3        5.091818   1.000000
    4        5.091818   1.000000
    5        7.889577  -0.000000
    6        9.341861  -0.000000
    7        9.341861  -0.000000
    8       12.715706   0.000000
 
  0.2346939E+00  0.2346939E+00  0.2346939E+00  0.6666667E-02
    1       -5.423582   1.000000
    2        2.182503   1.000000
    3        5.127433   1.000000
    4        5.127433   1.000000
    5        7.927774  -0.000000
    6        9.319638  -0.000000
    7        9.319638  -0.000000
    8       12.504774   0.000000
 
  0.2244898E+00  0.2244898E+00  0.2244898E+00  0.6666667E-02
    1       -5.482353   1.000000
    2        2.369332   1.000000
    3        5.164015   1.000000
    4        5.164015   1.000000
    5        7.964660  -0.000000
    6        9.292326  -0.000000
    7        9.292326  -0.000000
    8       12.325290   0.000000
 
  0.2142857E+00  0.2142857E+00  0.2142857E+00  0.6666667E-02
    1       -5.538710   1.000000
    2        2.558091   1.000000
    3        5.201862   1.000000
    4        5.201862   1.000000
    5        8.004231  -0.000000
    6        9.260534  -0.000000
    7        9.260534  -0.000000
    8       12.145154   0.000000
 
  0.2040816E+00  0.2040816E+00  0.2040816E+00  0.6666667E-02
    1       -5.592722   1.000000
    2        2.748064   1.000000
    3        5.240107   1.000002
    4        5.240107   1.000002
    5        8.044174  -0.000000
    6        9.223429  -0.000000
    7        9.223429  -0.000000
    8       11.963371   0.000000
 
  0.1938776E+00  0.1938776E+00  0.1938776E+00  0.6666667E-02
    1       -5.644322   1.000000
    2        2.939645   1.000000
    3        5.279266   1.000006
    4        5.279266   1.000006
    5        8.083932  -0.000000
    6        9.182511  -0.000000
    7        9.182511  -0.000000
    8       11.779360   0.000000
 
  0.1836735E+00  0.1836735E+00  0.1836735E+00  0.6666667E-02
    1       -5.693485   1.000000
    2        3.131675   1.000000
    3        5.318717   1.000020
    4        5.318717   1.000020
    5        8.124144  -0.000000
    6        9.137057  -0.000000
    7        9.137057  -0.000000
    8       12.776096   0.000000
 
  0.1734694E+00  0.1734694E+00  0.1734694E+00  0.6666667E-02
    1       -5.740157   1.000000
    2        3.324309   1.000000
    3        5.358554   1.000066
    4        5.358554   1.000066
    5        8.164157  -0.000000
    6        9.088202  -0.000000
    7        9.088202  -0.000000
    8       12.892509   0.000000
 
  0.1632653E+00  0.1632653E+00  0.1632653E+00  0.6666667E-02
    1       -5.784281   1.000000
    2        3.517225   1.000000
    3        5.399554   1.000204
    4        5.399554   1.000204
    5        8.203709  -0.000000
    6        9.036972  -0.000000
    7        9.036972  -0.000000
    8       12.973453   0.000000
 
  0.1530612E+00  0.1530612E+00  0.1530612E+00  0.6666667E-02
    1       -5.825874   1.000000
    2        3.710023   1.000000
    3        5.439639   1.000562
    4        5.439639   1.000562
    5        8.242448  -0.000000
    6        8.983206  -0.000000
    7        8.983206  -0.000000
    8       13.006192   0.000000
 
  0.1428571E+00  0.1428571E+00  0.1428571E+00  0.6666667E-02
    1       -5.864887   1.000000
    2        3.902266   1.000000
    3        5.479530   1.001405
    4        5.479530   1.001405
    5        8.280018  -0.000000
    6        8.928050  -0.000000
    7        8.928050  -0.000000
    8       13.044190   0.000000
 
  0.1326531E+00  0.1326531E+00  0.1326531E+00  0.6666667E-02
    1       -5.901256   1.000000
    2        4.094818   1.000000
    3        5.519045   1.003178
    4        5.519045   1.003178
    5        8.316456  -0.000000
    6        8.872421  -0.000000
    7        8.872422  -0.000000
    8       13.088945   0.000000
 
  0.1224490E+00  0.1224490E+00  0.1224490E+00  0.6666667E-02
    1       -5.935042   1.000000
    2        4.284267   1.000000
    3        5.557791   1.006446
    4        5.557791   1.006446
    5        8.350332  -0.000000
    6        8.816674  -0.000000
    7        8.816677  -0.000000
    8       13.140458   0.000000
 
  0.1122449E+00  0.1122449E+00  0.1122449E+00  0.6666667E-02
    1       -5.966184   1.000000
    2        4.471211   1.000000
    3        5.595524   1.011678
    4        5.595524   1.011678
    5        8.381508  -0.000000
    6        8.761737  -0.000000
    7        8.761743  -0.000000
    8       13.198302   0.000000
 
  0.1020408E+00  0.1020408E+00  0.1020408E+00  0.6666667E-02
    1       -5.994668   1.000000
    2        4.654691   1.000000
    3        5.631918   1.018798
    4        5.631918   1.018798
    5        8.409277  -0.000000
    6        8.708341  -0.000000
    7        8.708343  -0.000000
    8       13.261198   0.000000
 
  0.9183673E-01  0.9183673E-01  0.9183673E-01  0.6666667E-02
    1       -6.020487   1.000000
    2        4.833526   1.000000
    3        5.666615   1.026716
    4        5.666615   1.026716
    5        8.432812  -0.000000
    6        8.657213  -0.000000
    7        8.657216  -0.000000
    8       13.327560   0.000000
 
  0.8163265E-01  0.8163265E-01  0.8163265E-01  0.6666667E-02
    1       -6.043622   1.000000
    2        5.006235   1.000000
    3        5.699233   1.033200
    4        5.699233   1.033200
    5        8.451139  -0.000000
    6        8.609059  -0.000000
    7        8.609067  -0.000000
    8       13.395272   0.000000
 
  0.7142857E-01  0.7142857E-01  0.7142857E-01  0.6666667E-02
    1       -6.064061   1.000000
    2        5.170950   1.000000
    3        5.729368   1.035408
    4        5.729368   1.035408
    5        8.463204  -0.000000
    6        8.564571  -0.000000
    7        8.564582  -0.000000
    8       13.460436   0.000000
 
  0.6122449E-01  0.6122449E-01  0.6122449E-01  0.6666667E-02
    1       -6.081791   1.000000
    2        5.325329   1.000025
    3        5.756610   1.031001
    4        5.756610   1.031001
    5        8.468025  -0.000000
    6        8.524409  -0.000000
    7        8.524427  -0.000000
    8       13.521411   0.000000
 
  0.5102041E-01  0.5102041E-01  0.5102041E-01  0.6666667E-02
    1       -6.096806   1.000000
    2        5.466461   1.001051
    3        5.780544   1.019285
    4        5.780544   1.019285
    5        8.465013  -0.000000
    6        8.489196  -0.000000
    7        8.489196  -0.000000
    8        9.450082  -0.000000
 
  0.4081633E-01  0.4081633E-01  0.4081633E-01  0.6666667E-02
    1       -6.109098   1.000000
    2        5.590818   1.010902
    3        5.800776   1.001752
    4        5.800776   1.001752
    5        8.454643  -0.000000
    6        8.459502  -0.000000
    7        8.459502  -0.000000
    8        9.357054  -0.000000
 
  0.3061224E-01  0.3061224E-01  0.3061224E-01  0.6666667E-02
    1       -6.118663   1.000000
    2        5.694321   1.032401
    3        5.816946   0.981722
    4        5.816946   0.981722
    5        8.435831  -0.000000
    6        8.435831  -0.000000
    7        8.439069  -0.000000
    8        9.285719  -0.000000
 
  0.2040816E-01  0.2040816E-01  0.2040816E-01  0.6666667E-02
    1       -6.125496   1.000000
    2        5.772610   1.024147
    3        5.828744   0.963363
    4        5.828744   0.963363
    5        8.418597  -0.000000
    6        8.418597  -0.000000
    7        8.422327  -0.000000
    8        9.236188  -0.000000
 
  0.1020408E-01  0.1020408E-01  0.1020408E-01  0.6666667E-02
    1       -6.129660   1.000000
    2        5.821327   0.975287
    3        5.834792   0.952659
    4        5.834792   0.952659
    5        8.407910  -0.000000
    6        8.407910  -0.000000
    7        8.409401  -0.000000
    8        9.207251  -0.000000
 
  0.3989864E-16  0.3989864E-16  0.3989864E-16  0.6666667E-02
    1       -6.131044   1.000000
    2        5.837186   0.948174
    3        5.837194   0.948160
    4        5.837194   0.948160
    5        8.404394  -0.000000
    6        8.404405  -0.000000
    7        8.404405  -0.000000
    8        9.197794  -0.000000
 
  0.0000000E+00  0.0000000E+00  0.0000000E+00  0.6666667E-02
    1       -6.131044   1.000000
    2        5.837186   0.948174
    3        5.837194   0.948160
    4        5.837194   0.948160
    5        8.404394  -0.000000
    6        8.404405  -0.000000
    7        8.404405  -0.000000
    8        9.197794  -0.000000
 
  0.0000000E+00  0.1020408E-01  0.1020408E-01  0.6666667E-02
    1       -6.129139   1.000000
    2        5.825656   0.968488
    3        5.830299   0.960696
    4        5.830304   0.960688
    5        8.399995  -0.000000
    6        8.414892  -0.000000
    7        8.414899  -0.000000
    8        9.210383  -0.000000
 
  0.0000000E+00  0.2040816E-01  0.2040816E-01  0.6666667E-02
    1       -6.123673   1.000000
    2        5.788207   1.013555
    3        5.806619   0.995171
    4        5.806624   0.995165
    5        8.386370  -0.000000
    6        8.445334  -0.000000
    7        8.445340  -0.000000
    8        9.247004  -0.000000
 
  0.0000000E+00  0.3061224E-01  0.3061224E-01  0.6666667E-02
    1       -6.114559   1.000000
    2        5.727654   1.035445
    3        5.768431   1.026300
    4        5.768435   1.026298
    5        8.363976  -0.000000
    6        8.494787  -0.000000
    7        8.494794  -0.000000
    8        9.305896  -0.000000
 
  0.0000000E+00  0.4081633E-01  0.4081633E-01  0.6666667E-02
    1       -6.101800   1.000000
    2        5.646356   1.022048
    3        5.717347   1.035197
    4        5.717352   1.035197
    5        8.333257  -0.000000
    6        8.561632  -0.000000
    7        8.561639  -0.000000
    8        9.384236  -0.000000
 
  0.0000000E+00  0.5102041E-01  0.5102041E-01  0.6666667E-02
    1       -6.085397   1.000000
    2        5.547032   1.005347
    3        5.655244   1.024101
    4        5.655249   1.024102
    5        8.294792  -0.000000
    6        8.643981  -0.000000
    7        8.643988  -0.000000
    8        9.478604  -0.000000
 
  0.0000000E+00  0.6122449E-01  0.6122449E-01  0.6666667E-02
    1       -6.065356   1.000000
    2        5.432419   1.000471
    3        5.584043   1.009847
    4        5.584048   1.009848
    5        8.249262  -0.000000
    6        8.739895  -0.000000
    7        8.739902  -0.000000
    8        9.585222  -0.000000
 
  0.0000000E+00  0.7142857E-01  0.7142857E-01  0.6666667E-02
    1       -6.041679   1.000000
    2        5.305060   1.000013
    3        5.505559   1.002431
    4        5.505564   1.002431
    5        8.197413  -0.000000
    6        8.847538  -0.000000
    7        8.847545  -0.000000
    8        9.700060  -0.000000
 
  0.0000000E+00  0.8163265E-01  0.8163265E-01  0.6666667E-02
    1       -6.014373   1.000000
    2        5.167200   1.000000
    3        5.421416   1.000359
    4        5.421421   1.000359
    5        8.140034  -0.000000
    6        8.965265  -0.000000
    7        8.965272  -0.000000
    8        9.818766  -0.000000
 
  0.0000000E+00  0.9183673E-01  0.9183673E-01  0.6666667E-02
    1       -5.983454   1.000000
    2        5.020739   1.000000
    3        5.333020   1.000031
    4        5.333025   1.000031
    5        8.077917  -0.000000
    6        9.091645  -0.000000
    7        9.091651  -0.000000
    8        9.936454  -0.000000
 
  0.0000000E+00  0.1020408E+00  0.1020408E+00  0.6666667E-02
    1       -5.948925   1.000000
    2        4.867257   1.000000
    3        5.241560   1.000002
    4        5.241565   1.000002
    5        8.011839  -0.000000
    6        9.225460  -0.000000
    7        9.225467  -0.000000
    8       10.047386  -0.000000
 
  0.0000000E+00  0.1122449E+00  0.1122449E+00  0.6666667E-02
    1       -5.910801   1.000000
    2        4.707539   1.000000
    3        5.147984   1.000000
    4        5.147989   1.000000
    5        7.942496  -0.000000
    6        9.365499  -0.000000
    7        9.365506  -0.000000
    8       10.144070  -0.000000
 
  0.0000000E+00  0.1224490E+00  0.1224490E+00  0.6666667E-02
    1       -5.869066   1.000000
    2        4.543625   1.000000
    3        5.053202   1.000000
    4        5.053207   1.000000
    5        7.870680  -0.000000
    6        9.511274  -0.000000
    7        9.511281  -0.000000
    8       10.219301  -0.000000
 
  0.0000000E+00  0.1326531E+00  0.1326531E+00  0.6666667E-02
    1       -5.823742   1.000000
    2        4.375881   1.000000
    3        4.957851   1.000000
    4        4.957856   1.000000
    5        7.797002  -0.000000
    6        9.661889  -0.000000
    7        9.661896  -0.000000
    8       10.264364  -0.000000
 
  0.0000000E+00  0.1428571E+00  0.1428571E+00  0.6666667E-02
    1       -5.774841   1.000000
    2        4.204994   1.000000
    3        4.862495   1.000000
    4        4.862500   1.000000
    5        7.722068  -0.000000
    6        9.816751  -0.000000
    7        9.816758  -0.000000
    8       10.272681  -0.000000
 
  0.0000000E+00  0.1530612E+00  0.1530612E+00  0.6666667E-02
    1       -5.722444   1.000000
    2        4.030956   1.000000
    3        4.765988   1.000000
    4        4.765992   1.000000
    5        7.645784  -0.000000
    6        9.974198  -0.000000
    7        9.974205  -0.000000
    8       10.241898  -0.000000
 
  0.0000000E+00  0.1632653E+00  0.1632653E+00  0.6666667E-02
    1       -5.666423   1.000000
    2        3.855354   1.000000
    3        4.671987   1.000000
    4        4.671991   1.000000
    5        7.569939  -0.000000
    6       10.136086  -0.000000
    7       10.136093  -0.000000
    8       10.174901  -0.000000
 
  0.0000000E+00  0.1734694E+00  0.1734694E+00  0.6666667E-02
    1       -5.606865   1.000000
    2        3.677450   1.000000
    3        4.579071   1.000000
    4        4.579076   1.000000
    5        7.494417  -0.000000
    6       10.077723  -0.000000
    7       10.300857  -0.000000
    8       10.300864  -0.000000
 
  0.0000000E+00  0.1836735E+00  0.1836735E+00  0.6666667E-02
    1       -5.543797   1.000000
    2        3.498639   1.000000
    3        4.487723   1.000000
    4        4.487728   1.000000
    5        7.419466  -0.000000
    6        9.958582  -0.000000
    7       10.468286  -0.000000
    8       10.468294  -0.000000
 
  0.0000000E+00  0.1938776E+00  0.1938776E+00  0.6666667E-02
    1       -5.477221   1.000000
    2        3.318641   1.000000
    3        4.398072   1.000000
    4        4.398076   1.000000
    5        7.345533  -0.000000
    6        9.823780  -0.000000
    7       10.638097  -0.000000
    8       10.638105  -0.000000
 
  0.0000000E+00  0.2040816E+00  0.2040816E+00  0.6666667E-02
    1       -5.407155   1.000000
    2        3.137671   1.000000
    3        4.310314   1.000000
    4        4.310319   1.000000
    5        7.272948  -0.000000
    6        9.678643  -0.000000
    7       10.810062  -0.000000
    8       10.810069  -0.000000
 
  0.0000000E+00  0.2142857E+00  0.2142857E+00  0.6666667E-02
    1       -5.333615   1.000000
    2        2.955919   1.000000
    3        4.224628   1.000000
    4        4.224633   1.000000
    5        7.202011  -0.000000
    6        9.527164  -0.000000
    7       10.983984  -0.000000
    8       10.983992  -0.000000
 
  0.0000000E+00  0.2244898E+00  0.2244898E+00  0.6666667E-02
    1       -5.256623   1.000000
    2        2.773545   1.000000
    3        4.141161   1.000000
    4        4.141166   1.000000
    5        7.132992  -0.000000
    6        9.372276  -0.000000
    7       11.159693  -0.000000
    8       11.159701  -0.000000
 
  0.0000000E+00  0.2346939E+00  0.2346939E+00  0.6666667E-02
    1       -5.176198   1.000000
    2        2.590686   1.000000
    3        4.060043   1.000000
    4        4.060048   1.000000
    5        7.066132  -0.000000
    6        9.216124  -0.000000
    7       11.337043  -0.000000
    8       11.337051  -0.000000
 
  0.0000000E+00  0.2448980E+00  0.2448980E+00  0.6666667E-02
    1       -5.092237   1.000000
    2        2.407534   1.000000
    3        3.981517   1.000000
    4        3.981521   1.000000
    5        7.002346  -0.000000
    6        9.060751  -0.000000
    7       11.519974   0.000000
    8       11.519982   0.000000
 
  0.0000000E+00  0.2551020E+00  0.2551020E+00  0.6666667E-02
    1       -5.005015   1.000000
    2        2.224081   1.000000
    3        3.905413   1.000000
    4        3.905417   1.000000
    5        6.940434  -0.000000
    6        8.906440  -0.000000
    7       11.700225   0.000000
    8       11.700233   0.000000
 
  0.0000000E+00  0.2653061E+00  0.2653061E+00  0.6666667E-02
    1       -4.914443   1.000000
    2        2.040415   1.000000
    3        3.831826   1.000000
    4        3.831831   1.000000
    5        6.881284  -0.000000
    6        8.754425  -0.000000
    7       11.880520   0.000000
    8       11.880528   0.000000
 
  0.0000000E+00  0.2755102E+00  0.2755102E+00  0.6666667E-02
    1       -4.820538   1.000000
    2        1.856828   1.000000
    3        3.761104   1.000000
    4        3.761108   1.000000
    5        6.825062  -0.000000
    6        8.605617  -0.000000
    7       12.063244   0.000000
    8       12.063253   0.000000
 
  0.0000000E+00  0.2857143E+00  0.2857143E+00  0.6666667E-02
    1       -4.723326   1.000000
    2        1.673329   1.000000
    3        3.693174   1.000000
    4        3.693178   1.000000
    5        6.771920  -0.000000
    6        8.460439  -0.000000
    7       12.247118   0.000000
    8       12.247127   0.000000
 
  0.0000000E+00  0.2959184E+00  0.2959184E+00  0.6666667E-02
    1       -4.622836   1.000000
    2        1.490015   1.000000
    3        3.628096   1.000000
    4        3.628101   1.000000
    5        6.721997  -0.000001
    6        8.319310  -0.000000
    7       12.432082   0.000000
    8       12.432091   0.000000
 
  0.0000000E+00  0.3061224E+00  0.3061224E+00  0.6666667E-02
    1       -4.519097   1.000000
    2        1.306987   1.000000
    3        3.565926   1.000000
    4        3.565930   1.000000
    5        6.675425  -0.000004
    6        8.182555  -0.000000
    7       12.618083   0.000000
    8       12.618092   0.000000
 
  0.0000000E+00  0.3163265E+00  0.3163265E+00  0.6666667E-02
    1       -4.412143   1.000000
    2        1.124340   1.000000
    3        3.506710   1.000000
    4        3.506715   1.000000
    5        6.632322  -0.000015
    6        8.050430  -0.000000
    7       12.805074   0.000000
    8       12.805083   0.000000
 
  0.0000000E+00  0.3265306E+00  0.3265306E+00  0.6666667E-02
    1       -4.301627   1.000000
    2        0.942164   1.000000
    3        3.450564   1.000000
    4        3.450569   1.000000
    5        6.593899  -0.000048
    6        7.923136  -0.000000
    7       12.993443   0.000000
    8       12.993452   0.000000
 
  0.0000000E+00  0.3367347E+00  0.3367347E+00  0.6666667E-02
    1       -4.188339   1.000000
    2        0.760569   1.000000
    3        3.397378   1.000000
    4        3.397382   1.000000
    5        6.558081  -0.000133
    6        7.800825  -0.000000
    7       13.182268   0.000000
    8       13.182277   0.000000
 
  0.0000000E+00  0.3469388E+00  0.3469388E+00  0.6666667E-02
    1       -4.071951   1.000000
    2        0.579653   1.000000
    3        3.347262   1.000000
    4        3.347267   1.000000
    5        6.526048  -0.000309
    6        7.683617  -0.000000
    7       13.371952   0.000000
    8       13.371961   0.000000
 
  0.0000000E+00  0.3571429E+00  0.3571429E+00  0.6666667E-02
    1       -3.952548   1.000000
    2        0.399459   1.000000
    3        3.299508   1.000000
    4        3.299513   1.000000
    5        6.497884  -0.000619
    6        7.570955  -0.000000
    7       13.562016   0.000000
    8       13.562026   0.000000
 
  0.0000000E+00  0.3673469E+00  0.3673469E+00  0.6666667E-02
    1       -3.830080   1.000000
    2        0.220206   1.000000
    3        3.255655   1.000000
    4        3.255659   1.000000
    5        6.473693  -0.001085
    6        7.464174  -0.000000
    7       13.753268   0.000000
    8       13.753278   0.000000
 
  0.0000000E+00  0.3775510E+00  0.3775510E+00  0.6666667E-02
    1       -3.704634   1.000000
    2        0.041931   1.000000
    3        3.214957   1.000000
    4        3.214962   1.000000
    5        6.453554  -0.001686
    6        7.362688  -0.000000
    7       13.945188   0.000000
    8       13.945198   0.000000
 
  0.0000000E+00  0.3877551E+00  0.3877551E+00  0.6666667E-02
    1       -3.576179   1.000000
    2       -0.135124   1.000000
    3        3.177596   1.000000
    4        3.177601   1.000000
    5        6.438389  -0.002315
    6        7.266773  -0.000000
    7       14.145486   0.000000
    8       14.145492   0.000000
 
  0.0000000E+00  0.3979592E+00  0.3979592E+00  0.6666667E-02
    1       -3.444920   1.000000
    2       -0.311156   1.000000
    3        3.143274   1.000000
    4        3.143278   1.000000
    5        6.426571  -0.002934
    6        7.175941  -0.000000
    7       14.338282   0.000000
    8       14.338288   0.000000
 
  0.0000000E+00  0.4081633E+00  0.4081633E+00  0.6666667E-02
    1       -3.310827   1.000000
    2       -0.485920   1.000000
    3        3.112168   1.000000
    4        3.112172   1.000000
    5        6.419039  -0.003398
    6        7.090434  -0.000000
    7       14.531223   0.000000
    8       14.531229   0.000000
 