PROCAR lm decomposed
# of k-points:  150         # of bands:   8         # of ions:   2

 k-point    1 :    0.50000000 0.50000000 0.50000000     weight = 0.00666667

band   1 # energy   -3.79947238 # occ.  2.00000000
 
ion      s        py        pz        px       dxy       dyz       dz2       dxz       dx2       tot
  1  0.2264436  0.0046368  0.0046368  0.0046368  0.0000000  0.0000000  0.0000000  0.0000000  0.0000000  0.2403540
  2  0.2264436  0.0046368  0.0046368  0.0046368  0.0000000  0.0000000  0.0000000  0.0000000  0.0000000  0.2403540
tot  0.4528871  0.0092736  0.0092736  0.0092736  0.0000000  0.0000000  0.0000000  0.0000000  0.0000000  0.4807079
 
band   2 # energy   -1.13882919 # occ.  2.00000000
 
ion      s        py        pz        px       dxy       dyz       dz2       dxz       dx2       tot
  1  0.0985116  0.0319068  0.0319068  0.0319068  0.0000000  0.0000000  0.0000000  0.0000000  0.0000000  0.1942319
  2  0.0985116  0.0319068  0.0319068  0.0319068  0.0000000  0.0000000  0.0000000  0.0000000  0.0000000  0.1942319
tot  0.1970231  0.0638135  0.0638135  0.0638135  0.0000000  0.0000000  0.0000000  0.0000000  0.0000000  0.3884638
 
band   3 # energy    4.63469398 # occ.  2.00000000
 
ion      s        py        pz        px       dxy       dyz       dz2       dxz       dx2       tot
  1  0.0000000  0.1106964  0.0000000  0.1106977  0.0000000  0.0000000  0.0000000  0.0000000  0.0000000  0.2213942
  2  0.0000000  0.1106964  0.0000000  0.1106977  0.0000000  0.0000000  0.0000000  0.0000000  0.0000000  0.2213942
tot  0.0000000  0.2213929  0.0000000  0.2213955  0.0000000  0.0000000  0.0000000  0.0000000  0.0000000  0.4427884
 
band   4 # energy    4.63469399 # occ.  2.00000000
 
ion      s        py        pz        px       dxy       dyz       dz2       dxz       dx2       tot
  1  0.0000000  0.0368997  0.1475961  0.0368984  0.0000000  0.0000000  0.0000000  0.0000000  0.0000000  0.2213942
  2  0.0000000  0.0368997  0.1475961  0.0368984  0.0000000  0.0000000  0.0000000  0.0000000  0.0000000  0.2213942
tot  0.0000000  0.0737994  0.2951923  0.0737968  0.0000000  0.0000000  0.0000000  0.0000000  0.0000000  0.4427884
 
band   5 # energy    7.37823365 # occ. -0.00000000
 
ion      s        py        pz        px       dxy       dyz       dz2       dxz       dx2       tot
  1  0.1877813  0.0065741  0.0065741  0.0065741  0.0000000  0.0000000  0.0000000  0.0000000  0.0000000  0.2075035
  2  0.1877813  0.0065741  0.0065741  0.0065741  0.0000000  0.0000000  0.0000000  0.0000000  0.0000000  0.2075035
tot  0.3755625  0.0131481  0.0131481  0.0131481  0.0000000  0.0000000  0.0000000  0.0000000  0.0000000  0.4150070
 
band   6 # energy    9.19069683 # occ. -0.00000000
 
ion      s        py        pz        px       dxy       dyz       dz2       dxz       dx2       tot
  1  0.0000000  0.0480887  0.0000000  0.0480885  0.0000000  0.0000000  0.0000000  0.0000000  0.0000000  0.0961771
  2  0.0000000  0.0480887  0.0000000  0.0480885  0.0000000  0.0000000  0.0000000  0.0000000  0.0000000  0.0961771
tot  0.0000000  0.0961773  0.0000000  0.0961769  0.0000000  0.0000000  0.0000000  0.0000000  0.0000000  0.1923543
 
band   7 # energy    9.19069683 # occ. -0.00000000
 
ion      s        py        pz        px       dxy       dyz       dz2       dxz       dx2       tot
  1  0.0000000  0.0160294  0.0641181  0.0160296  0.0000000  0.0000000  0.0000000  0.0000000  0.0000000  0.0961771
  2  0.0000000  0.0160294  0.0641181  0.0160296  0.0000000  0.0000000  0.0000000  0.0000000  0.0000000  0.0961771
tot  0.0000000  0.0320589  0.1282362  0.0320592  0.0000000  0.0000000  0.0000000  0.0000000  0.0000000  0.1923543
 
band   8 # energy   13.56382587 # occ.  0.00000000
 
ion      s        py        pz        px       dxy       dyz       dz2       dxz       dx2       tot
  1  0.0059599  0.0176919  0.0176919  0.0176919  0.0000000  0.0000000  0.0000000  0.0000000  0.0000000  0.0590357
  2  0.0059599  0.0176919  0.0176919  0.0176919  0.0000000  0.0000000  0.0000000  0.0000000  0.0000000  0.0590357
tot  0.0119198  0.0353839  0.0353839  0.0353839  0.0000000  0.0000000  0.0000000  0.0000000  0.0000000  0.1180713
 

 k-point    2 :    0.48979592 0.48979592 0.48979592     weight = 0.00666667

band   1 # energy   -3.80547600 # occ.  2.00000000
 
ion      s        py        pz        px       dxy       dyz       dz2       dxz       dx2       tot
  1  0.2262367  0.0046539  0.0046539  0.0046539  0.0000000  0.0000000  0.0000000  0.0000000  0.0000000  0.2401984
  2  0.2262367  0.0046539  0.0046539  0.0046539  0.0000000  0.0000000  0.0000000  0.0000000  0.0000000  0.2401984
tot  0.4524733  0.0093078  0.0093078  0.0093078  0.0000000  0.0000000  0.0000000  0.0000000  0.0000000  0.4803967
 
band   2 # energy   -1.13025488 # occ.  2.00000000
 
ion      s        py        pz        px       dxy       dyz       dz2       dxz       dx2       tot
  1  0.0986915  0.0318998  0.0318998  0.0318998  0.0000000  0.0000000  0.0000000  0.0000000  0.0000000  0.1943908
  2  0.0986915  0.0318998  0.0318998  0.0318998  0.0000000  0.0000000  0.0000000  0.0000000  0.0000000  0.1943908
tot  0.1973830  0.0637996  0.0637996  0.0637996  0.0000000  0.0000000  0.0000000  0.0000000  0.0000000  0.3887817
 
band   3 # energy    4.63544401 # occ.  2.00000000
 
ion      s        py        pz        px       dxy       dyz       dz2       dxz       dx2       tot
  1  0.0000000  0.1141576  0.0001122  0.1071129  0.0000000  0.0000000  0.0000000  0.0000000  0.0000000  0.2213827
  2  0.0000000  0.1141576  0.0001122  0.1071129  0.0000000  0.0000000  0.0000000  0.0000000  0.0000000  0.2213827
tot  0.0000000  0.2283152  0.0002243  0.2142258  0.0000000  0.0000000  0.0000000  0.0000000  0.0000000  0.4427654
 
band   4 # energy    4.63544402 # occ.  2.00000000
 
ion      s        py        pz        px       dxy       dyz       dz2       dxz       dx2       tot
  1  0.0000000  0.0334308  0.1474763  0.0404756  0.0000000  0.0000000  0.0000000  0.0000000  0.0000000  0.2213827
  2  0.0000000  0.0334308  0.1474763  0.0404756  0.0000000  0.0000000  0.0000000  0.0000000  0.0000000  0.2213827
tot  0.0000000  0.0668617  0.2949526  0.0809511  0.0000000  0.0000000  0.0000000  0.0000000  0.0000000  0.4427654
 
band   5 # energy    7.37909500 # occ. -0.00000000
 
ion      s        py        pz        px       dxy       dyz       dz2       dxz       dx2       tot
  1  0.1877311  0.0065899  0.0065899  0.0065899  0.0000000  0.0000000  0.0000000  0.0000000  0.0000000  0.2075009
  2  0.1877311  0.0065899  0.0065899  0.0065899  0.0000000  0.0000000  0.0000000  0.0000000  0.0000000  0.2075009
tot  0.3754622  0.0131799  0.0131799  0.0131799  0.0000000  0.0000000  0.0000000  0.0000000  0.0000000  0.4150018
 
band   6 # energy    9.19156850 # occ. -0.00000000
 
ion      s        py        pz        px       dxy       dyz       dz2       dxz       dx2       tot
  1  0.0000000  0.0492642  0.0000277  0.0469573  0.0000000  0.0000000  0.0000000  0.0000000  0.0000000  0.0962491
  2  0.0000000  0.0492642  0.0000277  0.0469573  0.0000000  0.0000000  0.0000000  0.0000000  0.0000000  0.0962491
tot  0.0000000  0.0985284  0.0000553  0.0939145  0.0000000  0.0000000  0.0000000  0.0000000  0.0000000  0.1924983
 
band   7 # energy    9.19156850 # occ. -0.00000000
 
ion      s        py        pz        px       dxy       dyz       dz2       dxz       dx2       tot
  1  0.0000000  0.0149018  0.0641384  0.0172088  0.0000000  0.0000000  0.0000000  0.0000000  0.0000000  0.0962490
  2  0.0000000  0.0149018  0.0641384  0.0172088  0.0000000  0.0000000  0.0000000  0.0000000  0.0000000  0.0962490
tot  0.0000000  0.0298036  0.1282769  0.0344176  0.0000000  0.0000000  0.0000000  0.0000000  0.0000000  0.1924981
 
band   8 # energy   13.56517109 # occ.  0.00000000
 
ion      s        py        pz        px       dxy       dyz       dz2       dxz       dx2       tot
  1  0.0059345  0.0177361  0.0177361  0.0177359  0.0000000  0.0000000  0.0000000  0.0000000  0.0000000  0.0591425
  2  0.0059345  0.0177361  0.0177361  0.0177359  0.0000000  0.0000000  0.0000000  0.0000000  0.0000000  0.0591425
tot  0.0118690  0.0354721  0.0354721  0.0354717  0.0000000  0.0000000  0.0000000  0.0000000  0.0000000  0.1182850
 

 k-point    3 :    0.47959184 0.47959184 0.47959184     weight = 0.00666667

band   1 # energy   -3.82324525 # occ.  2.00000000
 
ion      s        py        pz        px       dxy       dyz       dz2       dxz       dx2       tot
  1  0.2256398  0.0047021  0.0047021  0.0047021  0.0000000  0.0000000  0.0000000  0.0000000  0.0000000  0.2397460
  2  0.2256398  0.0047021  0.0047021  0.0047021  0.0000000  0.0000000  0.0000000  0.0000000  0.0000000  0.2397460
tot  0.4512796  0.0094041  0.0094041  0.0094041  0.0000000  0.0000000  0.0000000  0.0000000  0.0000000  0.4794919
 
band   2 # energy   -1.10476785 # occ.  2.00000000
 
ion      s        py        pz        px       dxy       dyz       dz2       dxz       dx2       tot
  1  0.0992080  0.0318820  0.0318820  0.0318820  0.0000000  0.0000000  0.0000000  0.0000000  0.0000000  0.1948539
  2  0.0992080  0.0318820  0.0318820  0.0318820  0.0000000  0.0000000  0.0000000  0.0000000  0.0000000  0.1948539
tot  0.1984159  0.0637640  0.0637640  0.0637641  0.0000000  0.0000000  0.0000000  0.0000000  0.0000000  0.3897079
 
band   3 # energy    4.63769388 # occ.  2.00000000
 
ion      s        py        pz        px       dxy       dyz       dz2       dxz       dx2       tot
  1  0.0000000  0.1140046  0.0001034  0.1072402  0.0000000  0.0000000  0.0000000  0.0000000  0.0000000  0.2213483
  2  0.0000000  0.1140046  0.0001034  0.1072402  0.0000000  0.0000000  0.0000000  0.0000000  0.0000000  0.2213483
tot  0.0000000  0.2280093  0.0002069  0.2144804  0.0000000  0.0000000  0.0000000  0.0000000  0.0000000  0.4426965
 
band   4 # energy    4.63769388 # occ.  2.00000000
 
ion      s        py        pz        px       dxy       dyz       dz2       dxz       dx2       tot
  1  0.0000000  0.0335609  0.1474621  0.0403253  0.0000000  0.0000000  0.0000000  0.0000000  0.0000000  0.2213483
  2  0.0000000  0.0335609  0.1474621  0.0403253  0.0000000  0.0000000  0.0000000  0.0000000  0.0000000  0.2213483
tot  0.0000000  0.0671218  0.2949242  0.0806506  0.0000000  0.0000000  0.0000000  0.0000000  0.0000000  0.4426966
 
band   5 # energy    7.38167784 # occ. -0.00000000
 
ion      s        py        pz        px       dxy       dyz       dz2       dxz       dx2       tot
  1  0.1875797  0.0066375  0.0066375  0.0066374  0.0000000  0.0000000  0.0000000  0.0000000  0.0000000  0.2074920
  2  0.1875797  0.0066375  0.0066375  0.0066374  0.0000000  0.0000000  0.0000000  0.0000000  0.0000000  0.2074920
tot  0.3751594  0.0132749  0.0132749  0.0132748  0.0000000  0.0000000  0.0000000  0.0000000  0.0000000  0.4149840
 
band   6 # energy    9.19417338 # occ. -0.00000000
 
ion      s        py        pz        px       dxy       dyz       dz2       dxz       dx2       tot
  1  0.0000000  0.0482125  0.0000000  0.0482532  0.0000000  0.0000000  0.0000000  0.0000000  0.0000000  0.0964657
  2  0.0000000  0.0482125  0.0000000  0.0482532  0.0000000  0.0000000  0.0000000  0.0000000  0.0000000  0.0964657
tot  0.0000000  0.0964250  0.0000000  0.0965063  0.0000000  0.0000000  0.0000000  0.0000000  0.0000000  0.1929314
 
band   7 # energy    9.19417338 # occ. -0.00000000
 
ion      s        py        pz        px       dxy       dyz       dz2       dxz       dx2       tot
  1  0.0000000  0.0160980  0.0643105  0.0160572  0.0000000  0.0000000  0.0000000  0.0000000  0.0000000  0.0964657
  2  0.0000000  0.0160980  0.0643105  0.0160572  0.0000000  0.0000000  0.0000000  0.0000000  0.0000000  0.0964657
tot  0.0000000  0.0321960  0.1286210  0.0321144  0.0000000  0.0000000  0.0000000  0.0000000  0.0000000  0.1929314
 
band   8 # energy   13.56918873 # occ.  0.00000000
 
ion      s        py        pz        px       dxy       dyz       dz2       dxz       dx2       tot
  1  0.0058586  0.0178691  0.0178691  0.0178692  0.0000000  0.0000000  0.0000000  0.0000000  0.0000000  0.0594661
  2  0.0058586  0.0178691  0.0178691  0.0178692  0.0000000  0.0000000  0.0000000  0.0000000  0.0000000  0.0594661
tot  0.0117172  0.0357383  0.0357383  0.0357385  0.0000000  0.0000000  0.0000000  0.0000000  0.0000000  0.1189323
 

 k-point    4 :    0.46938776 0.46938776 0.46938776     weight = 0.00666667

band   1 # energy   -3.85209938 # occ.  2.00000000
 
ion      s        py        pz        px       dxy       dyz       dz2       dxz       dx2       tot
  1  0.2247174  0.0047728  0.0047728  0.0047728  0.0000000  0.0000000  0.0000000  0.0000000  0.0000000  0.2390357
  2  0.2247174  0.0047728  0.0047728  0.0047728  0.0000000  0.0000000  0.0000000  0.0000000  0.0000000  0.2390357
tot  0.4494347  0.0095455  0.0095455  0.0095455  0.0000000  0.0000000  0.0000000  0.0000000  0.0000000  0.4780714
 
band   2 # energy   -1.06304577 # occ.  2.00000000
 
ion      s        py        pz        px       dxy       dyz       dz2       dxz       dx2       tot
  1  0.0999963  0.0318620  0.0318620  0.0318620  0.0000000  0.0000000  0.0000000  0.0000000  0.0000000  0.1955823
  2  0.0999963  0.0318620  0.0318620  0.0318620  0.0000000  0.0000000  0.0000000  0.0000000  0.0000000  0.1955823
tot  0.1999926  0.0637240  0.0637241  0.0637240  0.0000000  0.0000000  0.0000000  0.0000000  0.0000000  0.3911647
 
band   3 # energy    4.64144271 # occ.  2.00000000
 
ion      s        py        pz        px       dxy       dyz       dz2       dxz       dx2       tot
  1  0.0000000  0.1106453  0.0000000  0.1106459  0.0000000  0.0000000  0.0000000  0.0000000  0.0000000  0.2212912
  2  0.0000000  0.1106453  0.0000000  0.1106459  0.0000000  0.0000000  0.0000000  0.0000000  0.0000000  0.2212912
tot  0.0000000  0.2212905  0.0000000  0.2212918  0.0000000  0.0000000  0.0000000  0.0000000  0.0000000  0.4425823
 
band   4 # energy    4.64144271 # occ.  2.00000000
 
ion      s        py        pz        px       dxy       dyz       dz2       dxz       dx2       tot
  1  0.0000000  0.0368822  0.1475274  0.0368815  0.0000000  0.0000000  0.0000000  0.0000000  0.0000000  0.2212911
  2  0.0000000  0.0368822  0.1475274  0.0368815  0.0000000  0.0000000  0.0000000  0.0000000  0.0000000  0.2212911
tot  0.0000000  0.0737643  0.2950549  0.0737631  0.0000000  0.0000000  0.0000000  0.0000000  0.0000000  0.4425823
 
band   5 # energy    7.38597962 # occ. -0.00000000
 
ion      s        py        pz        px       dxy       dyz       dz2       dxz       dx2       tot
  1  0.1873275  0.0067166  0.0067166  0.0067166  0.0000000  0.0000000  0.0000000  0.0000000  0.0000000  0.2074772
  2  0.1873275  0.0067166  0.0067166  0.0067166  0.0000000  0.0000000  0.0000000  0.0000000  0.0000000  0.2074772
tot  0.3746551  0.0134331  0.0134331  0.0134331  0.0000000  0.0000000  0.0000000  0.0000000  0.0000000  0.4149545
 
band   6 # energy    9.19848102 # occ. -0.00000000
 
ion      s        py        pz        px       dxy       dyz       dz2       dxz       dx2       tot
  1  0.0000000  0.0484141  0.0000000  0.0484136  0.0000000  0.0000000  0.0000000  0.0000000  0.0000000  0.0968277
  2  0.0000000  0.0484141  0.0000000  0.0484136  0.0000000  0.0000000  0.0000000  0.0000000  0.0000000  0.0968277
tot  0.0000000  0.0968282  0.0000000  0.0968273  0.0000000  0.0000000  0.0000000  0.0000000  0.0000000  0.1936555
 
band   7 # energy    9.19848102 # occ. -0.00000000
 
ion      s        py        pz        px       dxy       dyz       dz2       dxz       dx2       tot
  1  0.0000000  0.0161378  0.0645518  0.0161382  0.0000000  0.0000000  0.0000000  0.0000000  0.0000000  0.0968277
  2  0.0000000  0.0161378  0.0645518  0.0161382  0.0000000  0.0000000  0.0000000  0.0000000  0.0000000  0.0968277
tot  0.0000000  0.0322755  0.1291035  0.0322765  0.0000000  0.0000000  0.0000000  0.0000000  0.0000000  0.1936555
 
band   8 # energy   13.57582459 # occ.  0.00000000
 
ion      s        py        pz        px       dxy       dyz       dz2       dxz       dx2       tot
  1  0.0057323  0.0180957  0.0180958  0.0180957  0.0000000  0.0000000  0.0000000  0.0000000  0.0000000  0.0600196
  2  0.0057323  0.0180957  0.0180958  0.0180957  0.0000000  0.0000000  0.0000000  0.0000000  0.0000000  0.0600196
tot  0.0114647  0.0361914  0.0361917  0.0361914  0.0000000  0.0000000  0.0000000  0.0000000  0.0000000  0.1200392
 

 k-point    5 :    0.45918367 0.45918367 0.45918367     weight = 0.00666667

band   1 # energy   -3.89150038 # occ.  2.00000000
 
ion      s        py        pz        px       dxy       dyz       dz2       dxz       dx2       tot
  1  0.2232213  0.0048219  0.0048219  0.0048219  0.0000000  0.0000000  0.0000000  0.0000000  0.0000000  0.2376870
  2  0.2232213  0.0048219  0.0048219  0.0048219  0.0000000  0.0000000  0.0000000  0.0000000  0.0000000  0.2376870
tot  0.4464426  0.0096438  0.0096438  0.0096438  0.0000000  0.0000000  0.0000000  0.0000000  0.0000000  0.4753740
 
band   2 # energy   -1.00616672 # occ.  2.00000000
 
ion      s        py        pz        px       dxy       dyz       dz2       dxz       dx2       tot
  1  0.1009567  0.0318158  0.0318158  0.0318158  0.0000000  0.0000000  0.0000000  0.0000000  0.0000000  0.1964040
  2  0.1009567  0.0318158  0.0318158  0.0318158  0.0000000  0.0000000  0.0000000  0.0000000  0.0000000  0.1964040
tot  0.2019133  0.0636316  0.0636315  0.0636316  0.0000000  0.0000000  0.0000000  0.0000000  0.0000000  0.3928081
 
band   3 # energy    4.64658614 # occ.  2.00000000
 
ion      s        py        pz        px       dxy       dyz       dz2       dxz       dx2       tot
  1  0.0000000  0.1136369  0.0000858  0.1074774  0.0000000  0.0000000  0.0000000  0.0000000  0.0000000  0.2212001
  2  0.0000000  0.1136369  0.0000858  0.1074774  0.0000000  0.0000000  0.0000000  0.0000000  0.0000000  0.2212001
tot  0.0000000  0.2272738  0.0001716  0.2149547  0.0000000  0.0000000  0.0000000  0.0000000  0.0000000  0.4424002
 
band   4 # energy    4.64658614 # occ.  2.00000000
 
ion      s        py        pz        px       dxy       dyz       dz2       dxz       dx2       tot
  1  0.0000000  0.0338298  0.1473809  0.0399893  0.0000000  0.0000000  0.0000000  0.0000000  0.0000000  0.2212001
  2  0.0000000  0.0338298  0.1473809  0.0399893  0.0000000  0.0000000  0.0000000  0.0000000  0.0000000  0.2212001
tot  0.0000000  0.0676596  0.2947619  0.0799787  0.0000000  0.0000000  0.0000000  0.0000000  0.0000000  0.4424002
 
band   5 # energy    7.39178076 # occ. -0.00000000
 
ion      s        py        pz        px       dxy       dyz       dz2       dxz       dx2       tot
  1  0.1870490  0.0067913  0.0067913  0.0067913  0.0000000  0.0000000  0.0000000  0.0000000  0.0000000  0.2074229
  2  0.1870490  0.0067913  0.0067913  0.0067913  0.0000000  0.0000000  0.0000000  0.0000000  0.0000000  0.2074229
tot  0.3740980  0.0135826  0.0135826  0.0135826  0.0000000  0.0000000  0.0000000  0.0000000  0.0000000  0.4148458
 
band   6 # energy    9.20414063 # occ. -0.00000000
 
ion      s        py        pz        px       dxy       dyz       dz2       dxz       dx2       tot
  1  0.0000000  0.0493193  0.0000108  0.0478675  0.0000000  0.0000000  0.0000000  0.0000000  0.0000000  0.0971976
  2  0.0000000  0.0493193  0.0000108  0.0478675  0.0000000  0.0000000  0.0000000  0.0000000  0.0000000  0.0971976
tot  0.0000000  0.0986386  0.0000217  0.0957350  0.0000000  0.0000000  0.0000000  0.0000000  0.0000000  0.1943952
 
band   7 # energy    9.20414063 # occ. -0.00000000
 
ion      s        py        pz        px       dxy       dyz       dz2       dxz       dx2       tot
  1  0.0000000  0.0154791  0.0647875  0.0169308  0.0000000  0.0000000  0.0000000  0.0000000  0.0000000  0.0971974
  2  0.0000000  0.0154791  0.0647875  0.0169308  0.0000000  0.0000000  0.0000000  0.0000000  0.0000000  0.0971974
tot  0.0000000  0.0309582  0.1295750  0.0338616  0.0000000  0.0000000  0.0000000  0.0000000  0.0000000  0.1943948
 
band   8 # energy   13.58461768 # occ.  0.00000000
 
ion      s        py        pz        px       dxy       dyz       dz2       dxz       dx2       tot
  1  0.0055988  0.0184443  0.0184442  0.0184449  0.0000000  0.0000000  0.0000000  0.0000000  0.0000000  0.0609323
  2  0.0055988  0.0184443  0.0184442  0.0184449  0.0000000  0.0000000  0.0000000  0.0000000  0.0000000  0.0609323
tot  0.0111977  0.0368887  0.0368884  0.0368898  0.0000000  0.0000000  0.0000000  0.0000000  0.0000000  0.1218646
 

 k-point    6 :    0.44897959 0.44897959 0.44897959     weight = 0.00666667

band   1 # energy   -3.93937648 # occ.  2.00000000
 
ion      s        py        pz        px       dxy       dyz       dz2       dxz       dx2       tot
  1  0.2217795  0.0048987  0.0048987  0.0048987  0.0000000  0.0000000  0.0000000  0.0000000  0.0000000  0.2364756
  2  0.2217795  0.0048987  0.0048987  0.0048987  0.0000000  0.0000000  0.0000000  0.0000000  0.0000000  0.2364756
tot  0.4435589  0.0097975  0.0097974  0.0097975  0.0000000  0.0000000  0.0000000  0.0000000  0.0000000  0.4729513
 
band   2 # energy   -0.93527739 # occ.  2.00000000
 
ion      s        py        pz        px       dxy       dyz       dz2       dxz       dx2       tot
  1  0.1020564  0.0318127  0.0318127  0.0318127  0.0000000  0.0000000  0.0000000  0.0000000  0.0000000  0.1974945
  2  0.1020564  0.0318127  0.0318127  0.0318127  0.0000000  0.0000000  0.0000000  0.0000000  0.0000000  0.1974945
tot  0.2041129  0.0636254  0.0636254  0.0636254  0.0000000  0.0000000  0.0000000  0.0000000  0.0000000  0.3949890
 
band   3 # energy    4.65277658 # occ.  2.00000000
 
ion      s        py        pz        px       dxy       dyz       dz2       dxz       dx2       tot
  1  0.0000000  0.1099368  0.0000026  0.1110021  0.0000000  0.0000000  0.0000000  0.0000000  0.0000000  0.2209415
  2  0.0000000  0.1099368  0.0000026  0.1110021  0.0000000  0.0000000  0.0000000  0.0000000  0.0000000  0.2209415
tot  0.0000000  0.2198737  0.0000051  0.2220042  0.0000000  0.0000000  0.0000000  0.0000000  0.0000000  0.4418830
 
band   4 # energy    4.65277658 # occ.  2.00000000
 
ion      s        py        pz        px       dxy       dyz       dz2       dxz       dx2       tot
  1  0.0000000  0.0373575  0.1472918  0.0362922  0.0000000  0.0000000  0.0000000  0.0000000  0.0000000  0.2209415
  2  0.0000000  0.0373575  0.1472918  0.0362922  0.0000000  0.0000000  0.0000000  0.0000000  0.0000000  0.2209415
tot  0.0000000  0.0747150  0.2945835  0.0725845  0.0000000  0.0000000  0.0000000  0.0000000  0.0000000  0.4418830
 
band   5 # energy    7.39940616 # occ. -0.00000000
 
ion      s        py        pz        px       dxy       dyz       dz2       dxz       dx2       tot
  1  0.1865520  0.0069195  0.0069194  0.0069194  0.0000000  0.0000000  0.0000000  0.0000000  0.0000000  0.2073103
  2  0.1865520  0.0069195  0.0069194  0.0069194  0.0000000  0.0000000  0.0000000  0.0000000  0.0000000  0.2073103
tot  0.3731040  0.0138389  0.0138389  0.0138388  0.0000000  0.0000000  0.0000000  0.0000000  0.0000000  0.4146206
 
band   6 # energy    9.21103776 # occ. -0.00000000
 
ion      s        py        pz        px       dxy       dyz       dz2       dxz       dx2       tot
  1  0.0000000  0.0487101  0.0000002  0.0489189  0.0000000  0.0000000  0.0000000  0.0000000  0.0000000  0.0976292
  2  0.0000000  0.0487101  0.0000002  0.0489189  0.0000000  0.0000000  0.0000000  0.0000000  0.0000000  0.0976292
tot  0.0000000  0.0974201  0.0000004  0.0978378  0.0000000  0.0000000  0.0000000  0.0000000  0.0000000  0.1952584
 
band   7 # energy    9.21103777 # occ. -0.00000000
 
ion      s        py        pz        px       dxy       dyz       dz2       dxz       dx2       tot
  1  0.0000000  0.0163760  0.0650859  0.0161672  0.0000000  0.0000000  0.0000000  0.0000000  0.0000000  0.0976291
  2  0.0000000  0.0163760  0.0650859  0.0161672  0.0000000  0.0000000  0.0000000  0.0000000  0.0000000  0.0976291
tot  0.0000000  0.0327521  0.1301717  0.0323344  0.0000000  0.0000000  0.0000000  0.0000000  0.0000000  0.1952582
 
band   8 # energy   13.59614852 # occ.  0.00000000
 
ion      s        py        pz        px       dxy       dyz       dz2       dxz       dx2       tot
  1  0.0053675  0.0188838  0.0188840  0.0188834  0.0000000  0.0000000  0.0000000  0.0000000  0.0000000  0.0620188
  2  0.0053675  0.0188838  0.0188840  0.0188834  0.0000000  0.0000000  0.0000000  0.0000000  0.0000000  0.0620188
tot  0.0107350  0.0377677  0.0377681  0.0377667  0.0000000  0.0000000  0.0000000  0.0000000  0.0000000  0.1240375
 

 k-point    7 :    0.43877551 0.43877551 0.43877551     weight = 0.00666667

band   1 # energy   -3.99465672 # occ.  2.00000000
 
ion      s        py        pz        px       dxy       dyz       dz2       dxz       dx2       tot
  1  0.2204291  0.0049615  0.0049615  0.0049615  0.0000000  0.0000000  0.0000000  0.0000000  0.0000000  0.2353137
  2  0.2204291  0.0049615  0.0049615  0.0049615  0.0000000  0.0000000  0.0000000  0.0000000  0.0000000  0.2353137
tot  0.4408582  0.0099231  0.0099231  0.0099231  0.0000000  0.0000000  0.0000000  0.0000000  0.0000000  0.4706275
 
band   2 # energy   -0.85166602 # occ.  2.00000000
 
ion      s        py        pz        px       dxy       dyz       dz2       dxz       dx2       tot
  1  0.1030806  0.0318705  0.0318705  0.0318705  0.0000000  0.0000000  0.0000000  0.0000000  0.0000000  0.1986920
  2  0.1030806  0.0318705  0.0318705  0.0318705  0.0000000  0.0000000  0.0000000  0.0000000  0.0000000  0.1986920
tot  0.2061611  0.0637409  0.0637410  0.0637409  0.0000000  0.0000000  0.0000000  0.0000000  0.0000000  0.3973840
 
band   3 # energy    4.66103681 # occ.  2.00000000
 
ion      s        py        pz        px       dxy       dyz       dz2       dxz       dx2       tot
  1  0.0000000  0.1104177  0.0000000  0.1104176  0.0000000  0.0000000  0.0000000  0.0000000  0.0000000  0.2208353
  2  0.0000000  0.1104177  0.0000000  0.1104176  0.0000000  0.0000000  0.0000000  0.0000000  0.0000000  0.2208353
tot  0.0000000  0.2208354  0.0000000  0.2208353  0.0000000  0.0000000  0.0000000  0.0000000  0.0000000  0.4416707
 
band   4 # energy    4.66103681 # occ.  2.00000000
 
ion      s        py        pz        px       dxy       dyz       dz2       dxz       dx2       tot
  1  0.0000000  0.0368059  0.1472236  0.0368059  0.0000000  0.0000000  0.0000000  0.0000000  0.0000000  0.2208353
  2  0.0000000  0.0368059  0.1472236  0.0368059  0.0000000  0.0000000  0.0000000  0.0000000  0.0000000  0.2208353
tot  0.0000000  0.0736117  0.2944471  0.0736118  0.0000000  0.0000000  0.0000000  0.0000000  0.0000000  0.4416707
 
band   5 # energy    7.41034820 # occ. -0.00000000
 
ion      s        py        pz        px       dxy       dyz       dz2       dxz       dx2       tot
  1  0.1857561  0.0070472  0.0070472  0.0070472  0.0000000  0.0000000  0.0000000  0.0000000  0.0000000  0.2068977
  2  0.1857561  0.0070472  0.0070472  0.0070472  0.0000000  0.0000000  0.0000000  0.0000000  0.0000000  0.2068977
tot  0.3715122  0.0140944  0.0140944  0.0140944  0.0000000  0.0000000  0.0000000  0.0000000  0.0000000  0.4137954
 
band   6 # energy    9.22001142 # occ. -0.00000000
 
ion      s        py        pz        px       dxy       dyz       dz2       dxz       dx2       tot
  1  0.0000000  0.0164045  0.0656181  0.0164045  0.0000000  0.0000000  0.0000000  0.0000000  0.0000000  0.0984270
  2  0.0000000  0.0164045  0.0656181  0.0164045  0.0000000  0.0000000  0.0000000  0.0000000  0.0000000  0.0984270
tot  0.0000000  0.0328089  0.1312361  0.0328089  0.0000000  0.0000000  0.0000000  0.0000000  0.0000000  0.1968540
 
band   7 # energy    9.22001142 # occ. -0.00000000
 
ion      s        py        pz        px       dxy       dyz       dz2       dxz       dx2       tot
  1  0.0000000  0.0492132  0.0000000  0.0492132  0.0000000  0.0000000  0.0000000  0.0000000  0.0000000  0.0984265
  2  0.0000000  0.0492132  0.0000000  0.0492132  0.0000000  0.0000000  0.0000000  0.0000000  0.0000000  0.0984265
tot  0.0000000  0.0984265  0.0000000  0.0984265  0.0000000  0.0000000  0.0000000  0.0000000  0.0000000  0.1968529
 
band   8 # energy   13.61010950 # occ.  0.00000000
 
ion      s        py        pz        px       dxy       dyz       dz2       dxz       dx2       tot
  1  0.0050916  0.0194882  0.0194818  0.0194882  0.0000000  0.0000000  0.0000000  0.0000000  0.0000000  0.0635498
  2  0.0050916  0.0194882  0.0194818  0.0194882  0.0000000  0.0000000  0.0000000  0.0000000  0.0000000  0.0635498
tot  0.0101831  0.0389765  0.0389636  0.0389765  0.0000000  0.0000000  0.0000000  0.0000000  0.0000000  0.1270997
 

 k-point    8 :    0.42857143 0.42857143 0.42857143     weight = 0.00666667

band   1 # energy   -4.05614975 # occ.  2.00000000
 
ion      s        py        pz        px       dxy       dyz       dz2       dxz       dx2       tot
  1  0.2190917  0.0050077  0.0050077  0.0050077  0.0000000  0.0000000  0.0000000  0.0000000  0.0000000  0.2341146
  2  0.2190917  0.0050077  0.0050077  0.0050077  0.0000000  0.0000000  0.0000000  0.0000000  0.0000000  0.2341146
tot  0.4381833  0.0100153  0.0100153  0.0100153  0.0000000  0.0000000  0.0000000  0.0000000  0.0000000  0.4682293
 
band   2 # energy   -0.75676402 # occ.  2.00000000
 
ion      s        py        pz        px       dxy       dyz       dz2       dxz       dx2       tot
  1  0.1040656  0.0319604  0.0319604  0.0319603  0.0000000  0.0000000  0.0000000  0.0000000  0.0000000  0.1999466
  2  0.1040656  0.0319604  0.0319604  0.0319603  0.0000000  0.0000000  0.0000000  0.0000000  0.0000000  0.1999466
tot  0.2081311  0.0639208  0.0639207  0.0639206  0.0000000  0.0000000  0.0000000  0.0000000  0.0000000  0.3998933
 
band   3 # energy    4.67077574 # occ.  2.00000000
 
ion      s        py        pz        px       dxy       dyz       dz2       dxz       dx2       tot
  1  0.0000000  0.1225922  0.0015529  0.0965503  0.0000000  0.0000000  0.0000000  0.0000000  0.0000000  0.2206954
  2  0.0000000  0.1225922  0.0015529  0.0965503  0.0000000  0.0000000  0.0000000  0.0000000  0.0000000  0.2206954